data_NIMS_MatNavi_4296218488_1_2

#
# COPYRIGHT NOTICE
#
# This CIF data is created using data from AtomWork, published 2010/06 by
# National Institute for Materials Science (NIMS), Tsukuba, Japan. Copyright
# 2010 by NIMS and  Materials Phases Data system (MPDS), Vitznau,
# Switzerland. All Rghts Reserved.
#
# DISCLAIMER
#
# The values reported here are taken from the literature and other sources and
# the author does not warrant their correctness nor accept any
# responsibility for errors. Users are advised to consult the primarysources.
#

_chemical_formula_sum 'O2 V'
_space_group_crystal_system monoclinic
_symmetry_space_group_name_H-M 'P 21/c'
_symmetry_Int_Tables_number 14

loop_
    _symmetry_equiv_pos_site_id
    _symmetry_equiv_pos_as_xyz
1 x,y,z
2 -x,y+1/2,-z+1/2
3 -x,-y,-z
4 x,-y+1/2,z+1/2

_cell_length_a 5.3572
_cell_length_b 4.5263
_cell_length_c 5.3825
_cell_angle_alpha 90
_cell_angle_beta 115.222
_cell_angle_gamma 90
_cell_volume 118.07
_cell_formula_units_Z 4

loop_
    _atom_site_label
    _atom_site_fract_x
    _atom_site_fract_y
    _atom_site_fract_z
    _atom_site_occupancy
    _atom_site_symmetry_multiplicity
    _atom_site_Wyckoff_symbol
    _atom_site_U_iso_or_equiv
    _atom_site_type_symbol
O2 0.084 0.265 0.400 1.0 4 e 0.006333 O
V 0.2597 0.018 0.2915 1.0 4 e 0.006333 V
O1 0.606 0.210 0.403 1.0 4 e 0.006333 O

_publ_section_title 'An X-ray diffraction study of semiconductor and metallic vanadium dioxide'
_journal_coden_ASTM PODIE2
_journal_name_full 'Powder Diffr.'
_journal_year 1993
_journal_volume 8
_journal_page_first 240
_journal_page_last 244
_journal_language English

loop_
    _publ_author_name
'Rogers K.D.'
